# vtk DataFile Version 2.0
Example VTK file for a 2D square with a non-flat interface
ASCII
DATASET POLYDATA
POINTS 8 float
0.0 0.0 0.0
1.0 0.0 0.0
1.0 1.0 0.0
0.0 1.0 0.0
0.2 0.2 0.0
0.4 0.6 0.0
0.6 0.4 0.0
0.8 0.8 0.0

LINES 2 9
2 4 5
2 5 6

CELL_DATA 1
SCALARS material_ids int
LOOKUP_TABLE default
0

